file 18308056 1669294898                                        
version 3
run General-0-20221124-21:01:07-45020
attr configname General
attr datetime 20221124-21:01:07
attr datetimef 20221124-210107
attr experiment General
attr inifile omnetpp.ini
attr iterationvars ""
attr iterationvarsd ""
attr iterationvarsf ""
attr measurement ""
attr network Network
attr processid 45020
attr repetition 0
attr replication #0
attr resultdir results
attr runnumber 0
attr seedset 0
config network Network

vector 0 Network.nodes[170] remainEnergy:vector ETV
attr recordingmode vector
attr source Energy
attr title Energy
vector 1 Network.nodes[121] remainEnergy:vector ETV
attr recordingmode vector
attr source Energy
attr title Energy
vector 2 Network.nodes[71] remainEnergy:vector ETV
attr recordingmode vector
attr source Energy
attr title Energy
vector 3 Network.nodes[232] remainEnergy:vector ETV
attr recordingmode vector
attr source Energy
attr title Energy
vector 4 Network.nodes[11] remainEnergy:vector ETV
attr recordingmode vector
attr source Energy
attr title Energy
vector 5 Network.nodes[378] remainEnergy:vector ETV
attr recordingmode vector
attr source Energy
attr title Energy
vector 6 Network.nodes[58] remainEnergy:vector ETV
attr recordingmode vector
attr source Energy
attr title Energy
vector 7 Network.nodes[22] remainEnergy:vector ETV
attr recordingmode vector
attr source Energy
attr title Energy
vector 8 Network.nodes[325] remainEnergy:vector ETV
attr recordingmode vector
attr source Energy
attr title Energy
vector 9 Network.nodes[470] remainEnergy:vector ETV
attr recordingmode vector
attr source Energy
attr title Energy
vector 10 Network.nodes[199] remainEnergy:vector ETV
attr recordingmode vector
attr source Energy
attr title Energy
vector 11 Network.nodes[110] remainEnergy:vector ETV
attr recordingmode vector
attr source Energy
attr title Energy
vector 12 Network.nodes[435] remainEnergy:vector ETV
attr recordingmode vector
attr source Energy
attr title Energy
vector 13 Network.nodes[269] remainEnergy:vector ETV
attr recordingmode vector
attr source Energy
attr title Energy
vector 14 Network.nodes[352] remainEnergy:vector ETV
attr recordingmode vector
attr source Energy
attr title Energy
vector 15 Network.nodes[29] remainEnergy:vector ETV
attr recordingmode vector
attr source Energy
attr title Energy
vector 16 Network.nodes[436] remainEnergy:vector ETV
attr recordingmode vector
attr source Energy
attr title Energy
vector 17 Network.nodes[161] remainEnergy:vector ETV
attr recordingmode vector
attr source Energy
attr title Energy
vector 18 Network.nodes[391] remainEnergy:vector ETV
attr recordingmode vector
attr source Energy
attr title Energy
vector 19 Network.nodes[96] remainEnergy:vector ETV
attr recordingmode vector
attr source Energy
attr title Energy
vector 20 Network.nodes[439] remainEnergy:vector ETV
attr recordingmode vector
attr source Energy
attr title Energy
vector 21 Network.nodes[0] remainEnergy:vector ETV
attr recordingmode vector
attr source Energy
attr title Energy
vector 22 Network.nodes[135] remainEnergy:vector ETV
attr recordingmode vector
attr source Energy
attr title Energy
vector 23 Network.nodes[400] remainEnergy:vector ETV
attr recordingmode vector
attr source Energy
attr title Energy
vector 24 Network.nodes[125] remainEnergy:vector ETV
attr recordingmode vector
attr source Energy
attr title Energy
vector 25 Network.nodes[245] remainEnergy:vector ETV
attr recordingmode vector
attr source Energy
attr title Energy
vector 26 Network.nodes[208] remainEnergy:vector ETV
attr recordingmode vector
attr source Energy
attr title Energy
vector 27 Network.nodes[73] remainEnergy:vector ETV
attr recordingmode vector
attr source Energy
attr title Energy
vector 28 Network.nodes[348] remainEnergy:vector ETV
attr recordingmode vector
attr source Energy
attr title Energy
vector 29 Network.nodes[9] remainEnergy:vector ETV
attr recordingmode vector
attr source Energy
attr title Energy
vector 30 Network.nodes[493] remainEnergy:vector ETV
attr recordingmode vector
attr source Energy
attr title Energy
vector 31 Network.nodes[12] remainEnergy:vector ETV
attr recordingmode vector
attr source Energy
attr title Energy
vector 32 Network.nodes[105] remainEnergy:vector ETV
attr recordingmode vector
attr source Energy
attr title Energy
vector 33 Network.nodes[425] remainEnergy:vector ETV
attr recordingmode vector
attr source Energy
attr title Energy
vector 34 Network.nodes[124] remainEnergy:vector ETV
attr recordingmode vector
attr source Energy
attr title Energy
vector 35 Network.nodes[472] remainEnergy:vector ETV
attr recordingmode vector
attr source Energy
attr title Energy
vector 36 Network.nodes[4] remainEnergy:vector ETV
attr recordingmode vector
attr source Energy
attr title Energy
vector 37 Network.nodes[51] remainEnergy:vector ETV
attr recordingmode vector
attr source Energy
attr title Energy
vector 38 Network.nodes[350] remainEnergy:vector ETV
attr recordingmode vector
attr source Energy
attr title Energy
vector 39 Network.nodes[396] remainEnergy:vector ETV
attr recordingmode vector
attr source Energy
attr title Energy
vector 40 Network.nodes[107] remainEnergy:vector ETV
attr recordingmode vector
attr source Energy
attr title Energy
vector 41 Network.nodes[290] remainEnergy:vector ETV
attr recordingmode vector
attr source Energy
attr title Energy
vector 42 Network.nodes[25] remainEnergy:vector ETV
attr recordingmode vector
attr source Energy
attr title Energy
vector 43 Network.nodes[134] remainEnergy:vector ETV
attr recordingmode vector
attr source Energy
attr title Energy
vector 44 Network.nodes[37] remainEnergy:vector ETV
attr recordingmode vector
attr source Energy
attr title Energy
vector 45 Network.nodes[411] remainEnergy:vector ETV
attr recordingmode vector
attr source Energy
attr title Energy
vector 46 Network.nodes[202] remainEnergy:vector ETV
attr recordingmode vector
attr source Energy
attr title Energy
vector 47 Network.nodes[56] remainEnergy:vector ETV
attr recordingmode vector
attr source Energy
attr title Energy
vector 48 Network.nodes[461] remainEnergy:vector ETV
attr recordingmode vector
attr source Energy
attr title Energy
vector 49 Network.nodes[123] remainEnergy:vector ETV
attr recordingmode vector
attr source Energy
attr title Energy
vector 50 Network.nodes[206] remainEnergy:vector ETV
attr recordingmode vector
attr source Energy
attr title Energy
vector 51 Network.nodes[397] remainEnergy:vector ETV
attr recordingmode vector
attr source Energy
attr title Energy
vector 52 Network.nodes[40] remainEnergy:vector ETV
attr recordingmode vector
attr source Energy
attr title Energy
vector 53 Network.nodes[207] remainEnergy:vector ETV
attr recordingmode vector
attr source Energy
attr title Energy
vector 54 Network.nodes[388] remainEnergy:vector ETV
attr recordingmode vector
attr source Energy
attr title Energy
vector 55 Network.nodes[5] remainEnergy:vector ETV
attr recordingmode vector
attr source Energy
attr title Energy
vector 56 Network.nodes[217] remainEnergy:vector ETV
attr recordingmode vector
attr source Energy
attr title Energy
vector 57 Network.nodes[226] remainEnergy:vector ETV
attr recordingmode vector
attr source Energy
attr title Energy
vector 58 Network.nodes[39] remainEnergy:vector ETV
attr recordingmode vector
attr source Energy
attr title Energy
vector 59 Network.nodes[100] remainEnergy:vector ETV
attr recordingmode vector
attr source Energy
attr title Energy
vector 60 Network.nodes[326] remainEnergy:vector ETV
attr recordingmode vector
attr source Energy
attr title Energy
vector 61 Network.nodes[369] remainEnergy:vector ETV
attr recordingmode vector
attr source Energy
attr title Energy
vector 62 Network.nodes[236] remainEnergy:vector ETV
attr recordingmode vector
attr source Energy
attr title Energy
vector 63 Network.nodes[347] remainEnergy:vector ETV
attr recordingmode vector
attr source Energy
attr title Energy
vector 64 Network.nodes[189] remainEnergy:vector ETV
attr recordingmode vector
attr source Energy
attr title Energy
vector 65 Network.nodes[302] remainEnergy:vector ETV
attr recordingmode vector
attr source Energy
attr title Energy
vector 66 Network.nodes[218] remainEnergy:vector ETV
attr recordingmode vector
attr source Energy
attr title Energy
vector 67 Network.nodes[323] remainEnergy:vector ETV
attr recordingmode vector
attr source Energy
attr title Energy
vector 68 Network.nodes[431] remainEnergy:vector ETV
attr recordingmode vector
attr source Energy
attr title Energy
vector 69 Network.nodes[83] remainEnergy:vector ETV
attr recordingmode vector
attr source Energy
attr title Energy
vector 70 Network.nodes[115] remainEnergy:vector ETV
attr recordingmode vector
attr source Energy
attr title Energy
vector 71 Network.nodes[117] remainEnergy:vector ETV
attr recordingmode vector
attr source Energy
attr title Energy
vector 72 Network.nodes[78] remainEnergy:vector ETV
attr recordingmode vector
attr source Energy
attr title Energy
vector 73 Network.nodes[499] remainEnergy:vector ETV
attr recordingmode vector
attr source Energy
attr title Energy
vector 74 Network.nodes[65] remainEnergy:vector ETV
attr recordingmode vector
attr source Energy
attr title Energy
vector 75 Network.nodes[145] remainEnergy:vector ETV
attr recordingmode vector
attr source Energy
attr title Energy
vector 76 Network.nodes[422] remainEnergy:vector ETV
attr recordingmode vector
attr source Energy
attr title Energy
vector 77 Network.nodes[119] remainEnergy:vector ETV
attr recordingmode vector
attr source Energy
attr title Energy
vector 78 Network.nodes[185] remainEnergy:vector ETV
attr recordingmode vector
attr source Energy
attr title Energy
vector 79 Network.nodes[466] remainEnergy:vector ETV
attr recordingmode vector
attr source Energy
attr title Energy
vector 80 Network.nodes[483] remainEnergy:vector ETV
attr recordingmode vector
attr source Energy
attr title Energy
vector 81 Network.nodes[182] remainEnergy:vector ETV
attr recordingmode vector
attr source Energy
attr title Energy
vector 82 Network.nodes[6] remainEnergy:vector ETV
attr recordingmode vector
attr source Energy
attr title Energy
vector 83 Network.nodes[48] remainEnergy:vector ETV
attr recordingmode vector
attr source Energy
attr title Energy
vector 84 Network.nodes[370] remainEnergy:vector ETV
attr recordingmode vector
attr source Energy
attr title Energy
vector 85 Network.nodes[479] remainEnergy:vector ETV
attr recordingmode vector
attr source Energy
attr title Energy
vector 86 Network.nodes[148] remainEnergy:vector ETV
attr recordingmode vector
attr source Energy
attr title Energy
vector 87 Network.nodes[462] remainEnergy:vector ETV
attr recordingmode vector
attr source Energy
attr title Energy
vector 88 Network.nodes[456] remainEnergy:vector ETV
attr recordingmode vector
attr source Energy
attr title Energy
vector 89 Network.nodes[49] remainEnergy:vector ETV
attr recordingmode vector
attr source Energy
attr title Energy
vector 90 Network.nodes[242] remainEnergy:vector ETV
attr recordingmode vector
attr source Energy
attr title Energy
vector 91 Network.nodes[178] remainEnergy:vector ETV
attr recordingmode vector
attr source Energy
attr title Energy
vector 92 Network.nodes[44] remainEnergy:vector ETV
attr recordingmode vector
attr source Energy
attr title Energy
vector 93 Network.nodes[356] remainEnergy:vector ETV
attr recordingmode vector
attr source Energy
attr title Energy
vector 94 Network.nodes[328] remainEnergy:vector ETV
attr recordingmode vector
attr source Energy
attr title Energy
vector 95 Network.nodes[355] remainEnergy:vector ETV
attr recordingmode vector
attr source Energy
attr title Energy
vector 96 Network.nodes[160] remainEnergy:vector ETV
attr recordingmode vector
attr source Energy
attr title Energy
vector 97 Network.nodes[85] remainEnergy:vector ETV
attr recordingmode vector
attr source Energy
attr title Energy
vector 98 Network.nodes[138] remainEnergy:vector ETV
attr recordingmode vector
attr source Energy
attr title Energy
vector 99 Network.nodes[256] remainEnergy:vector ETV
attr recordingmode vector
attr source Energy
attr title Energy
vector 100 Network.nodes[222] remainEnergy:vector ETV
attr recordingmode vector
attr source Energy
attr title Energy
vector 101 Network.nodes[62] remainEnergy:vector ETV
attr recordingmode vector
attr source Energy
attr title Energy
vector 102 Network.nodes[129] remainEnergy:vector ETV
attr recordingmode vector
attr source Energy
attr title Energy
vector 103 Network.nodes[324] remainEnergy:vector ETV
attr recordingmode vector
attr source Energy
attr title Energy
vector 104 Network.nodes[235] remainEnergy:vector ETV
attr recordingmode vector
attr source Energy
attr title Energy
vector 105 Network.nodes[194] remainEnergy:vector ETV
attr recordingmode vector
attr source Energy
attr title Energy
vector 106 Network.nodes[278] remainEnergy:vector ETV
attr recordingmode vector
attr source Energy
attr title Energy
vector 107 Network.nodes[287] remainEnergy:vector ETV
attr recordingmode vector
attr source Energy
attr title Energy
vector 108 Network.nodes[491] remainEnergy:vector ETV
attr recordingmode vector
attr source Energy
attr title Energy
vector 109 Network.nodes[57] remainEnergy:vector ETV
attr recordingmode vector
attr source Energy
attr title Energy
vector 110 Network.nodes[315] remainEnergy:vector ETV
attr recordingmode vector
attr source Energy
attr title Energy
vector 111 Network.nodes[316] remainEnergy:vector ETV
attr recordingmode vector
attr source Energy
attr title Energy
vector 112 Network.nodes[250] remainEnergy:vector ETV
attr recordingmode vector
attr source Energy
attr title Energy
vector 113 Network.nodes[187] remainEnergy:vector ETV
attr recordingmode vector
attr source Energy
attr title Energy
vector 114 Network.nodes[128] remainEnergy:vector ETV
attr recordingmode vector
attr source Energy
attr title Energy
vector 115 Network.nodes[373] remainEnergy:vector ETV
attr recordingmode vector
attr source Energy
attr title Energy
vector 116 Network.nodes[289] remainEnergy:vector ETV
attr recordingmode vector
attr source Energy
attr title Energy
vector 117 Network.nodes[481] remainEnergy:vector ETV
attr recordingmode vector
attr source Energy
attr title Energy
vector 118 Network.nodes[444] remainEnergy:vector ETV
attr recordingmode vector
attr source Energy
attr title Energy
vector 119 Network.nodes[130] remainEnergy:vector ETV
attr recordingmode vector
attr source Energy
attr title Energy
vector 120 Network.nodes[120] remainEnergy:vector ETV
attr recordingmode vector
attr source Energy
attr title Energy
vector 121 Network.nodes[371] remainEnergy:vector ETV
attr recordingmode vector
attr source Energy
attr title Energy
vector 122 Network.nodes[419] remainEnergy:vector ETV
attr recordingmode vector
attr source Energy
attr title Energy
vector 123 Network.nodes[59] remainEnergy:vector ETV
attr recordingmode vector
attr source Energy
attr title Energy
vector 124 Network.nodes[211] remainEnergy:vector ETV
attr recordingmode vector
attr source Energy
attr title Energy
vector 125 Network.nodes[432] remainEnergy:vector ETV
attr recordingmode vector
attr source Energy
attr title Energy
vector 126 Network.nodes[32] remainEnergy:vector ETV
attr recordingmode vector
attr source Energy
attr title Energy
vector 127 Network.nodes[139] remainEnergy:vector ETV
attr recordingmode vector
attr source Energy
attr title Energy
vector 128 Network.nodes[237] remainEnergy:vector ETV
attr recordingmode vector
attr source Energy
attr title Energy
vector 129 Network.nodes[304] remainEnergy:vector ETV
attr recordingmode vector
attr source Energy
attr title Energy
vector 130 Network.nodes[414] remainEnergy:vector ETV
attr recordingmode vector
attr source Energy
attr title Energy
vector 131 Network.nodes[127] remainEnergy:vector ETV
attr recordingmode vector
attr source Energy
attr title Energy
vector 132 Network.nodes[174] remainEnergy:vector ETV
attr recordingmode vector
attr source Energy
attr title Energy
vector 133 Network.nodes[244] remainEnergy:vector ETV
attr recordingmode vector
attr source Energy
attr title Energy
vector 134 Network.nodes[259] remainEnergy:vector ETV
attr recordingmode vector
attr source Energy
attr title Energy
vector 135 Network.nodes[277] remainEnergy:vector ETV
attr recordingmode vector
attr source Energy
attr title Energy
vector 136 Network.nodes[344] remainEnergy:vector ETV
attr recordingmode vector
attr source Energy
attr title Energy
vector 137 Network.nodes[266] remainEnergy:vector ETV
attr recordingmode vector
attr source Energy
attr title Energy
vector 138 Network.nodes[365] remainEnergy:vector ETV
attr recordingmode vector
attr source Energy
attr title Energy
vector 139 Network.nodes[455] remainEnergy:vector ETV
attr recordingmode vector
attr source Energy
attr title Energy
vector 140 Network.nodes[36] remainEnergy:vector ETV
attr recordingmode vector
attr source Energy
attr title Energy
vector 141 Network.nodes[301] remainEnergy:vector ETV
attr recordingmode vector
attr source Energy
attr title Energy
vector 142 Network.nodes[190] remainEnergy:vector ETV
attr recordingmode vector
attr source Energy
attr title Energy
vector 143 Network.nodes[230] remainEnergy:vector ETV
attr recordingmode vector
attr source Energy
attr title Energy
vector 144 Network.nodes[463] remainEnergy:vector ETV
attr recordingmode vector
attr source Energy
attr title Energy
vector 145 Network.nodes[101] remainEnergy:vector ETV
attr recordingmode vector
attr source Energy
attr title Energy
vector 146 Network.nodes[144] remainEnergy:vector ETV
attr recordingmode vector
attr source Energy
attr title Energy
vector 147 Network.nodes[282] remainEnergy:vector ETV
attr recordingmode vector
attr source Energy
attr title Energy
vector 148 Network.nodes[260] remainEnergy:vector ETV
attr recordingmode vector
attr source Energy
attr title Energy
vector 149 Network.nodes[102] remainEnergy:vector ETV
attr recordingmode vector
attr source Energy
attr title Energy
vector 150 Network.nodes[94] remainEnergy:vector ETV
attr recordingmode vector
attr source Energy
attr title Energy
vector 151 Network.nodes[438] remainEnergy:vector ETV
attr recordingmode vector
attr source Energy
attr title Energy
vector 152 Network.nodes[156] remainEnergy:vector ETV
attr recordingmode vector
attr source Energy
attr title Energy
vector 153 Network.nodes[330] remainEnergy:vector ETV
attr recordingmode vector
attr source Energy
attr title Energy
vector 154 Network.nodes[430] remainEnergy:vector ETV
attr recordingmode vector
attr source Energy
attr title Energy
vector 155 Network.nodes[54] remainEnergy:vector ETV
attr recordingmode vector
attr source Energy
attr title Energy
vector 156 Network.nodes[495] remainEnergy:vector ETV
attr recordingmode vector
attr source Energy
attr title Energy
vector 157 Network.nodes[203] remainEnergy:vector ETV
attr recordingmode vector
attr source Energy
attr title Energy
vector 158 Network.nodes[114] remainEnergy:vector ETV
attr recordingmode vector
attr source Energy
attr title Energy
vector 159 Network.nodes[272] remainEnergy:vector ETV
attr recordingmode vector
attr source Energy
attr title Energy
vector 160 Network.nodes[46] remainEnergy:vector ETV
attr recordingmode vector
attr source Energy
attr title Energy
vector 161 Network.nodes[196] remainEnergy:vector ETV
attr recordingmode vector
attr source Energy
attr title Energy
vector 162 Network.nodes[465] remainEnergy:vector ETV
attr recordingmode vector
attr source Energy
attr title Energy
vector 163 Network.nodes[239] remainEnergy:vector ETV
attr recordingmode vector
attr source Energy
attr title Energy
vector 164 Network.nodes[293] remainEnergy:vector ETV
attr recordingmode vector
attr source Energy
attr title Energy
vector 165 Network.nodes[335] remainEnergy:vector ETV
attr recordingmode vector
attr source Energy
attr title Energy
vector 166 Network.nodes[23] remainEnergy:vector ETV
attr recordingmode vector
attr source Energy
attr title Energy
vector 167 Network.nodes[310] remainEnergy:vector ETV
attr recordingmode vector
attr source Energy
attr title Energy
vector 168 Network.nodes[219] remainEnergy:vector ETV
attr recordingmode vector
attr source Energy
attr title Energy
vector 169 Network.nodes[113] remainEnergy:vector ETV
attr recordingmode vector
attr source Energy
attr title Energy
vector 170 Network.nodes[320] remainEnergy:vector ETV
attr recordingmode vector
attr source Energy
attr title Energy
vector 171 Network.nodes[392] remainEnergy:vector ETV
attr recordingmode vector
attr source Energy
attr title Energy
vector 172 Network.nodes[180] remainEnergy:vector ETV
attr recordingmode vector
attr source Energy
attr title Energy
vector 173 Network.nodes[95] remainEnergy:vector ETV
attr recordingmode vector
attr source Energy
attr title Energy
vector 174 Network.nodes[317] remainEnergy:vector ETV
attr recordingmode vector
attr source Energy
attr title Energy
vector 175 Network.nodes[168] remainEnergy:vector ETV
attr recordingmode vector
attr source Energy
attr title Energy
vector 176 Network.nodes[152] remainEnergy:vector ETV
attr recordingmode vector
attr source Energy
attr title Energy
vector 177 Network.nodes[329] remainEnergy:vector ETV
attr recordingmode vector
attr source Energy
attr title Energy
vector 178 Network.nodes[482] remainEnergy:vector ETV
attr recordingmode vector
attr source Energy
attr title Energy
vector 179 Network.nodes[376] remainEnergy:vector ETV
attr recordingmode vector
attr source Energy
attr title Energy
vector 180 Network.nodes[246] remainEnergy:vector ETV
attr recordingmode vector
attr source Energy
attr title Energy
vector 181 Network.nodes[98] remainEnergy:vector ETV
attr recordingmode vector
attr source Energy
attr title Energy
vector 182 Network.nodes[3] remainEnergy:vector ETV
attr recordingmode vector
attr source Energy
attr title Energy
vector 183 Network.nodes[424] remainEnergy:vector ETV
attr recordingmode vector
attr source Energy
attr title Energy
vector 184 Network.nodes[333] remainEnergy:vector ETV
attr recordingmode vector
attr source Energy
attr title Energy
vector 185 Network.nodes[441] remainEnergy:vector ETV
attr recordingmode vector
attr source Energy
attr title Energy
vector 186 Network.nodes[434] remainEnergy:vector ETV
attr recordingmode vector
attr source Energy
attr title Energy
vector 187 Network.nodes[26] remainEnergy:vector ETV
attr recordingmode vector
attr source Energy
attr title Energy
vector 188 Network.nodes[353] remainEnergy:vector ETV
attr recordingmode vector
attr source Energy
attr title Energy
vector 189 Network.nodes[104] remainEnergy:vector ETV
attr recordingmode vector
attr source Energy
attr title Energy
vector 190 Network.nodes[469] remainEnergy:vector ETV
attr recordingmode vector
attr source Energy
attr title Energy
vector 191 Network.nodes[31] remainEnergy:vector ETV
attr recordingmode vector
attr source Energy
attr title Energy
vector 192 Network.nodes[224] remainEnergy:vector ETV
attr recordingmode vector
attr source Energy
attr title Energy
vector 193 Network.nodes[252] remainEnergy:vector ETV
attr recordingmode vector
attr source Energy
attr title Energy
vector 194 Network.nodes[380] remainEnergy:vector ETV
attr recordingmode vector
attr source Energy
attr title Energy
vector 195 Network.nodes[267] remainEnergy:vector ETV
attr recordingmode vector
attr source Energy
attr title Energy
vector 196 Network.nodes[415] remainEnergy:vector ETV
attr recordingmode vector
attr source Energy
attr title Energy
vector 197 Network.nodes[186] remainEnergy:vector ETV
attr recordingmode vector
attr source Energy
attr title Energy
vector 198 Network.nodes[468] remainEnergy:vector ETV
attr recordingmode vector
attr source Energy
attr title Energy
vector 199 Network.nodes[408] remainEnergy:vector ETV
attr recordingmode vector
attr source Energy
attr title Energy
vector 200 Network.nodes[358] remainEnergy:vector ETV
attr recordingmode vector
attr source Energy
attr title Energy
vector 201 Network.nodes[169] remainEnergy:vector ETV
attr recordingmode vector
attr source Energy
attr title Energy
vector 202 Network.nodes[291] remainEnergy:vector ETV
attr recordingmode vector
attr source Energy
attr title Energy
vector 203 Network.nodes[473] remainEnergy:vector ETV
attr recordingmode vector
attr source Energy
attr title Energy
vector 204 Network.nodes[297] remainEnergy:vector ETV
attr recordingmode vector
attr source Energy
attr title Energy
vector 205 Network.nodes[45] remainEnergy:vector ETV
attr recordingmode vector
attr source Energy
attr title Energy
vector 206 Network.nodes[153] remainEnergy:vector ETV
attr recordingmode vector
attr source Energy
attr title Energy
vector 207 Network.nodes[374] remainEnergy:vector ETV
attr recordingmode vector
attr source Energy
attr title Energy
vector 208 Network.nodes[452] remainEnergy:vector ETV
attr recordingmode vector
attr source Energy
attr title Energy
vector 209 Network.nodes[279] remainEnergy:vector ETV
attr recordingmode vector
attr source Energy
attr title Energy
vector 210 Network.nodes[68] remainEnergy:vector ETV
attr recordingmode vector
attr source Energy
attr title Energy
vector 211 Network.nodes[318] remainEnergy:vector ETV
attr recordingmode vector
attr source Energy
attr title Energy
vector 212 Network.nodes[407] remainEnergy:vector ETV
attr recordingmode vector
attr source Energy
attr title Energy
vector 213 Network.nodes[292] remainEnergy:vector ETV
attr recordingmode vector
attr source Energy
attr title Energy
vector 214 Network.nodes[354] remainEnergy:vector ETV
attr recordingmode vector
attr source Energy
attr title Energy
vector 215 Network.nodes[60] remainEnergy:vector ETV
attr recordingmode vector
attr source Energy
attr title Energy
vector 216 Network.nodes[321] remainEnergy:vector ETV
attr recordingmode vector
attr source Energy
attr title Energy
vector 217 Network.nodes[249] remainEnergy:vector ETV
attr recordingmode vector
attr source Energy
attr title Energy
vector 218 Network.nodes[314] remainEnergy:vector ETV
attr recordingmode vector
attr source Energy
attr title Energy
vector 219 Network.nodes[131] remainEnergy:vector ETV
attr recordingmode vector
attr source Energy
attr title Energy
vector 220 Network.nodes[437] remainEnergy:vector ETV
attr recordingmode vector
attr source Energy
attr title Energy
vector 221 Network.nodes[163] remainEnergy:vector ETV
attr recordingmode vector
attr source Energy
attr title Energy
vector 222 Network.nodes[271] remainEnergy:vector ETV
attr recordingmode vector
attr source Energy
attr title Energy
vector 223 Network.nodes[340] remainEnergy:vector ETV
attr recordingmode vector
attr source Energy
attr title Energy
vector 224 Network.nodes[2] remainEnergy:vector ETV
attr recordingmode vector
attr source Energy
attr title Energy
vector 225 Network.nodes[35] remainEnergy:vector ETV
attr recordingmode vector
attr source Energy
attr title Energy
vector 226 Network.nodes[284] remainEnergy:vector ETV
attr recordingmode vector
attr source Energy
attr title Energy
vector 227 Network.nodes[294] remainEnergy:vector ETV
attr recordingmode vector
attr source Energy
attr title Energy
vector 228 Network.nodes[484] remainEnergy:vector ETV
attr recordingmode vector
attr source Energy
attr title Energy
vector 229 Network.nodes[238] remainEnergy:vector ETV
attr recordingmode vector
attr source Energy
attr title Energy
vector 230 Network.nodes[416] remainEnergy:vector ETV
attr recordingmode vector
attr source Energy
attr title Energy
vector 231 Network.nodes[453] remainEnergy:vector ETV
attr recordingmode vector
attr source Energy
attr title Energy
vector 232 Network.nodes[464] remainEnergy:vector ETV
attr recordingmode vector
attr source Energy
attr title Energy
vector 233 Network.nodes[446] remainEnergy:vector ETV
attr recordingmode vector
attr source Energy
attr title Energy
vector 234 Network.nodes[92] remainEnergy:vector ETV
attr recordingmode vector
attr source Energy
attr title Energy
vector 235 Network.nodes[346] remainEnergy:vector ETV
attr recordingmode vector
attr source Energy
attr title Energy
vector 236 Network.nodes[280] remainEnergy:vector ETV
attr recordingmode vector
attr source Energy
attr title Energy
vector 237 Network.nodes[459] remainEnergy:vector ETV
attr recordingmode vector
attr source Energy
attr title Energy
vector 238 Network.nodes[476] remainEnergy:vector ETV
attr recordingmode vector
attr source Energy
attr title Energy
vector 239 Network.nodes[264] remainEnergy:vector ETV
attr recordingmode vector
attr source Energy
attr title Energy
vector 240 Network.nodes[381] remainEnergy:vector ETV
attr recordingmode vector
attr source Energy
attr title Energy
vector 241 Network.nodes[30] remainEnergy:vector ETV
attr recordingmode vector
attr source Energy
attr title Energy
vector 242 Network.nodes[191] remainEnergy:vector ETV
attr recordingmode vector
attr source Energy
attr title Energy
vector 243 Network.nodes[84] remainEnergy:vector ETV
attr recordingmode vector
attr source Energy
attr title Energy
vector 244 Network.nodes[227] remainEnergy:vector ETV
attr recordingmode vector
attr source Energy
attr title Energy
vector 245 Network.nodes[41] remainEnergy:vector ETV
attr recordingmode vector
attr source Energy
attr title Energy
vector 246 Network.nodes[157] remainEnergy:vector ETV
attr recordingmode vector
attr source Energy
attr title Energy
vector 247 Network.nodes[383] remainEnergy:vector ETV
attr recordingmode vector
attr source Energy
attr title Energy
vector 248 Network.nodes[368] remainEnergy:vector ETV
attr recordingmode vector
attr source Energy
attr title Energy
vector 249 Network.nodes[306] remainEnergy:vector ETV
attr recordingmode vector
attr source Energy
attr title Energy
vector 250 Network.nodes[77] remainEnergy:vector ETV
attr recordingmode vector
attr source Energy
attr title Energy
vector 251 Network.nodes[33] remainEnergy:vector ETV
attr recordingmode vector
attr source Energy
attr title Energy
vector 252 Network.nodes[28] remainEnergy:vector ETV
attr recordingmode vector
attr source Energy
attr title Energy
vector 253 Network.nodes[361] remainEnergy:vector ETV